{"IUPACName": {"value": ["prop-1-ene"], "type": "list", "name": "IUPAC\u540d\u79f0"}, "InChI": {"value": ["InChI=1S/C3H6/c1-3-2/h3H,1H2,2H3"], "type": "list", "name": "InChI"}, "InChIKey": {"value": ["QQONPFPTGQHPMA-UHFFFAOYSA-N"], "type": "list", "name": "InChIKey"}, "CanonicalSMILES": {"value": ["CC=C"], "type": "list", "name": "\u6807\u51c6SMILES"}, "MolecularFormula": {"value": ["C3H6", "C3H6CH2CHCH3", "CH3CHCH2"], "type": "list", "name": "\u5206\u5b50\u5f0f"}, "Molecular Weight": {"value": ["42.08 g/mol"], "type": "str", "name": "\u5206\u5b50\u91cf"}, "XLogP3_AA": {"value": ["1.4"], "type": "str", "name": "XLogP3_AA"}, "Hydrogen Bond Donor Count": {"value": ["0"], "type": "str", "name": "\u6c22\u952e\u4f9b\u4f53\u6570\u91cf"}, "Hydrogen Bond Acceptor Count": {"value": ["0"], "type": "str", "name": "\u6c22\u952e\u53d7\u4f53\u6570\u91cf"}, "Rotatable Bond Count": {"value": ["0"], "type": "str", "name": "\u53ef\u65cb\u8f6c\u952e\u6570"}, "Exact Mass": {"value": ["42.0469501914 g/mol"], "type": "str", "name": "\u7cbe\u786e\u8d28\u91cf"}, "Monoisotopic Mass": {"value": ["42.0469501914 g/mol"], "type": "str", "name": "\u5355\u4e00\u540c\u4f4d\u7d20\u8d28\u91cf"}, "Topological Polar Surface Area": {"value": ["0\u212b\u00b2"], "type": "str", "name": "\u62d3\u6251\u6781\u6027\u8868\u9762\u79ef"}, "Heavy Atom Count": {"value": ["3"], "type": "str", "name": "\u91cd\u539f\u5b50\u6570\u91cf"}, "Formal Charge": {"value": ["0"], "type": "str", "name": "\u6b63\u5f0f\u7535\u8377"}, "Complexity": {"value": ["7.5"], "type": "str", "name": "\u590d\u6742\u6027"}, "Isotope Atom Count": {"value": ["0"], "type": "str", "name": "\u540c\u4f4d\u7d20\u539f\u5b50\u6570"}, "Defined Atom Stereocenter Count": {"value": ["0"], "type": "str", "name": "\u5b9a\u4e49\u7684\u539f\u5b50\u7acb\u4f53\u4e2d\u5fc3\u6570"}, "Undefined Atom Stereocenter Count": {"value": ["0"], "type": "str", "name": "\u672a\u5b9a\u4e49\u7684\u539f\u5b50\u7acb\u4f53\u4e2d\u5fc3\u6570"}, "Defined Bond Stereocenter Count": {"value": ["0"], "type": "str", "name": "\u5b9a\u4e49\u7684\u952e\u7acb\u4f53\u4e2d\u5fc3\u6570"}, "Undefined Bond Stereocenter Count": {"value": ["0"], "type": "str", "name": "\u672a\u5b9a\u4e49\u7684\u952e\u7acb\u4f53\u4e2d\u5fc3\u6570"}, "Covalently_Bonded Unit Count": {"value": ["1"], "type": "str", "name": "\u5171\u4ef7\u952e\u5355\u5143\u6570"}, "Compound Is Canonicalized": {"value": ["Yes"], "type": "str", "name": "\u5316\u5408\u7269\u662f\u5426\u89c4\u8303\u5316"}, "ColorForm": {"value": ["Colorless gas"], "type": "list", "name": "\u989c\u8272\u5f62\u6001"}, "Odor": {"value": ["Practically odorless; aromatic", "Faint, petroleum-like"], "type": "list", "name": "\u6c14\u5473"}, "BoilingPoint": {"value": ["-53.9 \u00b0F at 760 mmHg (NTP, 1992)", "-47.68 \u00b0C", "-48 \u00b0C", "-53.9 \u00b0F"], "type": "list", "name": "\u6cb8\u70b9"}, "MeltingPoint": {"value": ["-301.4 \u00b0F (NTP, 1992)", "-185.30 \u00b0C", "-185 \u00b0C", "-301.4 \u00b0F"], "type": "list", "name": "\u7194\u70b9"}, "FlashPoint": {"value": ["-162 \u00b0F (NTP, 1992)", "-108 \u00b0C", "-162 \u00b0F (-108 \u00b0C)", "Flammable gas", "-162 \u00b0F"], "type": "list", "name": "\u95ea\u70b9"}, "Solubility": {"value": ["44.6 mL/100 mL (NTP, 1992)", "In", "water", ", 200 mg/L at 25 \u00b0C", "In", "water", ", 44.6 mL gas/100 mL at 20 \u00b0C", "Very soluble in water", "Very soluble in", "ethanol", ",", "acetic acid", "For more Solubility (Complete) data for Propylene (7 total), please visit the", "HSDB record page", ".", "Solubility in water: poor"], "type": "list", "name": "\u6eb6\u89e3\u6027"}, "Density": {"value": ["0.609 at -52.6 \u00b0F (USCG, 1999) - Less dense than", "water", "; will float", "0.5139 at 20 \u00b0C/4 \u00b0C (liquid)", "Density: 1.49 (Air = 1.0) (triple point)", "Density: 0.505 g/cu cm at 25 \u00b0C (pressure >1 atm )", "Relative density (", "water", "= 1): 0.5", "0.609 at -52.6 \u00b0F"], "type": "list", "name": "\u5bc6\u5ea6"}, "VaporDensity": {"value": ["1.46 at 32 \u00b0F (NTP, 1992) - Heavier than air; will sink (Relative to Air)", "1.46 (Air = 1.0) at 0 \u00b0C", "Relative vapor density  (air = 1): 1.5", "4.46"], "type": "list", "name": "\u84b8\u6c14\u5bc6\u5ea6"}, "VaporPressure": {"value": ["1 mmHg at -205.4 \u00b0F ; 760 mmHg at -53.9 \u00b0F (NTP, 1992)", "VP: 10 atm at 19.8 \u00b0C", "8.69X10+3 mm Hg at 25 \u00b0C /Extrapolated/", "Vapor pressure, kPa at 25 \u00b0C: 1158", "1 mmHg at -205.4 \u00b0F"], "type": "list", "name": "\u84b8\u6c14\u538b"}, "LogP": {"value": ["log Kow = 1.77", "1.77"], "type": "list", "name": "LogP"}, "Stability": {"value": ["Stable under recommended storage conditions."], "type": "list", "name": "\u7a33\u5b9a\u6027"}, "AutoignitionTemperature": {"value": ["851 \u00b0F (USCG, 1999)", "851 \u00b0F (455 \u00b0C)", "460 \u00b0C"], "type": "list", "name": "\u81ea\u71c3\u6e29\u5ea6"}, "RefractiveIndex": {"value": ["Index of refraction: 1.3567 at -40 \u00b0C/D", "Index of refraction: 1.3567 at -70 \u00b0C"], "type": "list", "name": "\u6298\u5c04\u7387"}, "LEL": {"value": ["2 % (NTP, 1992)", "2%"], "type": "list", "name": "\u4e0b\u7206\u70b8\u6781\u9650"}, "UEL": {"value": ["11.1 % (NTP, 1992)", "11.1%"], "type": "list", "name": "\u4e0a\u7206\u70b8\u6781\u9650"}, "HazardsIdentification": {"value": ["12.1.1 GHS Classification", "Danger", "H220 (100%): Extremely flammable gas [", "Danger", "Flammable gases]", "H280 (74.35%): Contains gas under pressure; may explode if heated [", "Warning", "Gases under pressure]", "P203, P210, P222, P280, P377, P381, P403, and P410+P403", "(The corresponding statement to each P-code can be found at the", "GHS Classification", "page.)", "Aggregated GHS information provided by 1195 companies from 20 notifications to the ECHA C&L Inventory. Each notification may be associated with multiple companies.", "Reported as not meeting GHS hazard criteria by 2 of 1195 companies. For more detailed information, please visit", "ECHA C&L website.", "Of the 19 notification(s) provided by 1193 of 1195 companies with hazard statement code(s).", "Information may vary between notifications depending on impurities, additives, and other factors. The percentage value in parenthesis indicates the notified classification ratio from companies that provide hazard codes. Only hazard codes with percentage values above 10% are shown.", "12.1.2 Hazard Classes and Categories", "Flam. Gas 1 (100%)", "Press. Gas (Comp.) (74.35%)", "Not Classified", "12.1.3 NFPA Hazard Classification", "1 - Materials that, under emergency conditions, can cause significant irritation.", "4 - Materials that rapidly or completely vaporize at atmospheric pressure and normal ambient temperature or that are readily dispersed in air and burn readily.", "1 - Materials that in themselves are normally stable but that can become unstable at elevated temperatures and pressures.", "12.1.4 Health Hazards", "Moderate concentration in air causes dizziness, drowsiness, and unconsciousness. Contact with liquefied propylene will cause \"freezing burn\". (USCG, 1999)", "- Vapors may cause dizziness or asphyxiation without warning.", "- Some may be irritating if inhaled at high concentrations.", "- Contact with gas or liquefied gas may cause burns, severe injury and/or frostbite.", "- Fire may produce irritating and/or toxic gases.", "12.1.5 Fire Hazards", "Behavior in Fire: Containers may explode. Vapor is heavier than air and may travel considerable distance to a source of ignition and flash back. (USCG, 1999)", "- EXTREMELY FLAMMABLE.", "- Will be easily ignited by heat, sparks or flames.", "- Will form explosive mixtures with air.", "- Vapors from liquefied gas are initially heavier than air and spread along ground.", "CAUTION:", "Hydrogen", "(UN1049),", "Deuterium", "(", "UN1957", "),", "Hydrogen", ", refrigerated liquid (UN1966),", "Methane", "(", "UN1971", ") and", "Hydrogen", "and", "Methane", "mixture, compressed (UN2034) are lighter than air and will rise.", "Hydrogen", "and", "Deuterium", "fires are difficult to detect since they burn with an invisible flame. Use an alternate method of detection (thermal camera, broom handle, etc.)", "- Vapors may travel to source of ignition and flash back.", "- Cylinders exposed to fire may vent and release flammable gas through pressure relief devices.", "- Containers may explode when heated.", "- Ruptured cylinders may rocket.", "Extremely flammable. Gas/air mixtures are explosive.", "12.1.6 Hazards Summary", "Simple asphyxiant  Evaporating liquid can cause frostbite; Inhalation of high concentrations can cause CNS depression; [ICSC]", "12.1.7 Fire Potential", "Flammable gas and very dangerous fire hazard when exposed to heat, flame, or oxidizers.", "Dangerous fire risk.", "12.1.8 Skin, Eye, and Respiratory Irritations", "Exposure to 40, 50, and 75% for a few min caused initial reddening of eyelids, flushing of face, lacrimation, coughing, and sometimes flexing of legs."], "type": "list", "name": "\u5371\u9669\u6027\u9274\u5b9a"}, "Pictogram(s)": {"value": ["FlammableCompressed Gas"], "type": "str", "name": "Pictogram(s)"}, "Signal": {"value": ["Danger"], "type": "str", "name": "Signal"}, "GHS Hazard Statements": {"value": ["H220 (100%): Extremely flammable gas [DangerFlammable gases]H280 (74.35%): Contains gas under pressure; may explode if heated [WarningGases under pressure]"], "type": "str", "name": "GHS Hazard Statements"}, "Precautionary Statement Codes": {"value": ["P203, P210, P222, P280, P377, P381, P403, and P410+P403(The corresponding statement to each P_code can be found at theGHS Classificationpage.)"], "type": "str", "name": "Precautionary Statement Codes"}, "ECHA C&L Notifications Summary": {"value": ["Aggregated GHS information provided by 1195 companies from 20 notifications to the ECHA C&L Inventory. Each notification may be associated with multiple companies.Reported as not meeting GHS hazard criteria by 2 of 1195 companies. For more detailed information, please visitECHA C&L website.Of the 19 notification(s) provided by 1193 of 1195 companies with hazard statement code(s).Information may vary between notifications depending on impurities, additives, and other factors. The percentage value in parenthesis indicates the notified classification ratio from companies that provide hazard codes. Only hazard codes with percentage values above 10% are shown."], "type": "str", "name": "ECHA C&L Notifications Summary"}, "CAS": {"value": ["115-07-1"], "type": "str", "name": "CAS\u53f7"}}