{"\u5316\u5b66\u7ed3\u6784": {"IUPACName": {"value": ["but-1-ene"], "type": "list", "name": "IUPAC\u540d\u79f0"}, "InChI": {"value": ["InChI=1S/C4H8/c1-3-4-2/h3H,1,4H2,2H3"], "type": "list", "name": "InChI"}, "InChIKey": {"value": ["VXNZUUAINFGPBY-UHFFFAOYSA-N"], "type": "list", "name": "InChIKey"}, "CanonicalSMILES": {"value": ["CCC=C"], "type": "list", "name": "\u6807\u51c6SMILES"}, "MolecularFormula": {"value": ["C4H8", "C4H8CH3CH2CH=CH2"], "type": "list", "name": "\u5206\u5b50\u5f0f"}, "Molecular Weight": {"value": ["56.11 g/mol"], "type": "str", "name": "\u5206\u5b50\u91cf"}, "Heavy Atom Count": {"value": ["4"], "type": "str", "name": "\u91cd\u539f\u5b50\u6570\u91cf"}, "Formal Charge": {"value": ["0"], "type": "str", "name": "\u6b63\u5f0f\u7535\u8377"}, "Compound Is Canonicalized": {"value": ["Yes"], "type": "str", "name": "\u5316\u5408\u7269\u662f\u5426\u89c4\u8303\u5316"}}, "\u5206\u5b50\u7269\u7406\u6027\u8d28": {"Hydrogen Bond Donor Count": {"value": ["0"], "type": "str", "name": "\u6c22\u952e\u4f9b\u4f53\u6570\u91cf"}, "Hydrogen Bond Acceptor Count": {"value": ["0"], "type": "str", "name": "\u6c22\u952e\u53d7\u4f53\u6570\u91cf"}, "Rotatable Bond Count": {"value": ["1"], "type": "str", "name": "\u53ef\u65cb\u8f6c\u952e\u6570"}, "Topological Polar Surface Area": {"value": ["0\u212b\u00b2"], "type": "str", "name": "\u62d3\u6251\u6781\u6027\u8868\u9762\u79ef"}, "Complexity": {"value": ["14"], "type": "str", "name": "\u590d\u6742\u6027"}, "Isotope Atom Count": {"value": ["0"], "type": "str", "name": "\u540c\u4f4d\u7d20\u539f\u5b50\u6570"}, "Defined Atom Stereocenter Count": {"value": ["0"], "type": "str", "name": "\u5b9a\u4e49\u7684\u539f\u5b50\u7acb\u4f53\u4e2d\u5fc3\u6570"}, "Undefined Atom Stereocenter Count": {"value": ["0"], "type": "str", "name": "\u672a\u5b9a\u4e49\u7684\u539f\u5b50\u7acb\u4f53\u4e2d\u5fc3\u6570"}, "Defined Bond Stereocenter Count": {"value": ["0"], "type": "str", "name": "\u5b9a\u4e49\u7684\u952e\u7acb\u4f53\u4e2d\u5fc3\u6570"}, "Undefined Bond Stereocenter Count": {"value": ["0"], "type": "str", "name": "\u672a\u5b9a\u4e49\u7684\u952e\u7acb\u4f53\u4e2d\u5fc3\u6570"}, "Covalently_Bonded Unit Count": {"value": ["1"], "type": "str", "name": "\u5171\u4ef7\u952e\u5355\u5143\u6570"}}, "\u7269\u7406\u6027\u8d28": {"ColorForm": {"value": ["Colorless gas"], "type": "list", "name": "\u989c\u8272\u5f62\u6001"}, "Odor": {"value": ["Slightly aromatic odor", "Gassy, slightly aromatic odor"], "type": "list", "name": "\u6c14\u5473"}, "BoilingPoint": {"value": ["21 \u00b0F at 760 mmHg (NTP, 1992)", "-6.47 \u00b0C at 760 mm Hg", "-6 \u00b0C"], "type": "list", "name": "\u6cb8\u70b9"}, "MeltingPoint": {"value": ["-301.5 \u00b0F (NTP, 1992)", "-185.33 \u00b0C", "-185 \u00b0C"], "type": "list", "name": "\u7194\u70b9"}, "FlashPoint": {"value": ["-110 \u00b0F (NTP, 1992)", "Flammable gas"], "type": "list", "name": "\u95ea\u70b9"}, "Solubility": {"value": ["Insoluble (NTP, 1992)", "In", "water", ", 221 mg/L at 25 \u00b0C", "Soluble in", "benzene", "; very soluble in alcohol, ether", "Solubility in water: none"], "type": "list", "name": "\u6eb6\u89e3\u6027"}, "Density": {"value": ["0.6255 at 19.9 \u00b0F (NTP, 1992) - Less dense than", "water", "; will float", "0.588 g/cu cm at 25 \u00b0C, 1 atm", "Density of liquid 10.47 mol/L at 298.15 K; critical volume 0.240 L/mol"], "type": "list", "name": "\u5bc6\u5ea6"}, "VaporDensity": {"value": ["1.93 (NTP, 1992) - Heavier than air; will sink (Relative to Air)", "1.93 (Air = 1)", "Relative vapor density  (air = 1): 1.93"], "type": "list", "name": "\u84b8\u6c14\u5bc6\u5ea6"}, "VaporPressure": {"value": ["3480 mmHg at 70 \u00b0F (NTP, 1992)", "Vapor pressure: 3480 mm Hg at 21 \u00b0C", "2.253X10+3 mm Hg at 25 \u00b0C", "Vapor pressure, kPa at 21 \u00b0C: 464"], "type": "list", "name": "\u84b8\u6c14\u538b"}, "LogP": {"value": ["log Kow = 2.40"], "type": "list", "name": "LogP"}, "RefractiveIndex": {"value": ["Index of refraction: 1.3962 at 20 \u00b0C/D"], "type": "list", "name": "\u6298\u5c04\u7387"}}, "\u5316\u5b66\u7a33\u5b9a\u6027\u4e0e\u53cd\u5e94\u6027": {"Stability": {"value": ["Stable under recommended storage conditions."], "type": "list", "name": "\u7a33\u5b9a\u6027"}, "LEL": {"value": ["1.6 % (NTP, 1992)"], "type": "list", "name": "\u4e0b\u7206\u70b8\u6781\u9650"}, "UEL": {"value": ["9.3 % (NTP, 1992)"], "type": "list", "name": "\u4e0a\u7206\u70b8\u6781\u9650"}, "HazardsIdentification": {"value": ["11.1.1 GHS Classification", "Danger", "H220 (99.79%): Extremely flammable gas [", "Danger", "Flammable gases]", "H280 (66.97%): Contains gas under pressure; may explode if heated [", "Warning", "Gases under pressure]", "P203, P210, P222, P280, P377, P381, P403, and P410+P403", "(The corresponding statement to each P-code can be found at the", "GHS Classification", "page.)", "Aggregated GHS information provided by 1413 companies from 17 notifications to the ECHA C&L Inventory. Each notification may be associated with multiple companies.", "Reported as not meeting GHS hazard criteria by 2 of 1413 companies. For more detailed information, please visit", "ECHA C&L website.", "Of the 16 notification(s) provided by 1411 of 1413 companies with hazard statement code(s).", "Information may vary between notifications depending on impurities, additives, and other factors. The percentage value in parenthesis indicates the notified classification ratio from companies that provide hazard codes. Only hazard codes with percentage values above 10% are shown.", "11.1.2 Hazard Classes and Categories", "Flam. Gas 1 (99.79%)", "Press. Gas (Comp.) (66.97%)", "Flammable gas - category 1", "Gases under pressure", "11.1.3 NFPA Hazard Classification", "1 - Materials that, under emergency conditions, can cause significant irritation.", "4 - Materials that rapidly or completely vaporize at atmospheric pressure and normal ambient temperature or that are readily dispersed in air and burn readily.", "0 - Materials that in themselves are normally stable, even under fire conditions.", "11.1.4 Health Hazards", "SYMPTOMS: This compound may be an asphyxiant or a slight anesthetic at high concentrations. It may also cause eye irritation.", "ACUTE/CHRONIC HAZARDS: This material may be narcotic in high concentrations and is an asphyxiant. This chemical is extremely flammable. (NTP, 1992)", "11.1.5 Fire Hazards", "This chemical is flammable. Vapor is heavier than air and may travel long distances to an ignition source and flash back. (NTP, 1992)", "Extremely flammable. Gas/air mixtures are explosive.", "11.1.6 Hazards Summary", "Single TLV for all isomers because they are often used as mixtures; Butene causes anesthesia in animal experiments. Respiratory arrest occurs in the range of 210,000 to 320,000 ppm. [ACGIH] In a confined space spill, may displace air and act as simple asphyxiant; Evaporating liquid can cause frostbite; [CHEMINFO]; May cause central nervous system effects including unconsciousness; [ICSC]", "11.1.7 Fire Potential", "Very dangerous fire hazard when exposed to heat, flame, or oxidizers.", "11.1.8 Skin, Eye, and Respiratory Irritations", "It ... is mildly irritating to the eye."], "type": "list", "name": "\u5371\u9669\u6027\u9274\u5b9a"}}, "\u6807\u8bc6\u4e0e\u7f16\u53f7": {"CAS": {"value": ["25167-67-3"], "type": "str", "name": "CAS\u53f7"}}, "\u5176\u4ed6": {"XLogP3": {"value": ["2.4"], "type": "str", "name": "XLogP3"}, "Exact Mass": {"value": ["56.062600255 g/mol"], "type": "str", "name": "\u7cbe\u786e\u8d28\u91cf"}, "Monoisotopic Mass": {"value": ["56.062600255 g/mol"], "type": "str", "name": "\u5355\u4e00\u540c\u4f4d\u7d20\u8d28\u91cf"}, "AutoignitionTemperature": {"value": ["723 \u00b0F (NTP, 1992)", "725 \u00b0F (385 \u00b0C)", "385 \u00b0C"], "type": "list", "name": "\u81ea\u71c3\u6e29\u5ea6"}, "Pictogram(s)": {"value": ["FlammableCompressed Gas"], "type": "str", "name": "Pictogram(s)"}, "Signal": {"value": ["Danger"], "type": "str", "name": "Signal"}, "GHS Hazard Statements": {"value": ["H220 (99.79%): Extremely flammable gas [DangerFlammable gases]H280 (66.97%): Contains gas under pressure; may explode if heated [WarningGases under pressure]"], "type": "str", "name": "GHS Hazard Statements"}, "Precautionary Statement Codes": {"value": ["P203, P210, P222, P280, P377, P381, P403, and P410+P403(The corresponding statement to each P_code can be found at theGHS Classificationpage.)"], "type": "str", "name": "Precautionary Statement Codes"}, "ECHA C&L Notifications Summary": {"value": ["Aggregated GHS information provided by 1413 companies from 17 notifications to the ECHA C&L Inventory. Each notification may be associated with multiple companies.Reported as not meeting GHS hazard criteria by 2 of 1413 companies. For more detailed information, please visitECHA C&L website.Of the 16 notification(s) provided by 1411 of 1413 companies with hazard statement code(s).Information may vary between notifications depending on impurities, additives, and other factors. The percentage value in parenthesis indicates the notified classification ratio from companies that provide hazard codes. Only hazard codes with percentage values above 10% are shown."], "type": "str", "name": "ECHA C&L Notifications Summary"}}}