{"IUPACName": {"value": ["1,1,2-trifluoroethene"], "type": "list", "name": "IUPAC\u540d\u79f0"}, "InChI": {"value": ["InChI=1S/C2HF3/c3-1-2(4)5/h1H"], "type": "list", "name": "InChI"}, "InChIKey": {"value": ["MIZLGWKEZAPEFJ-UHFFFAOYSA-N"], "type": "list", "name": "InChIKey"}, "CanonicalSMILES": {"value": ["C(=C(F)F)F"], "type": "list", "name": "\u6807\u51c6SMILES"}, "MolecularFormula": {"value": ["C2HF3"], "type": "list", "name": "\u5206\u5b50\u5f0f"}, "Molecular Weight": {"value": ["82.02 g/mol"], "type": "str", "name": "\u5206\u5b50\u91cf"}, "XLogP3_AA": {"value": ["1"], "type": "str", "name": "XLogP3_AA"}, "Hydrogen Bond Donor Count": {"value": ["0"], "type": "str", "name": "\u6c22\u952e\u4f9b\u4f53\u6570\u91cf"}, "Hydrogen Bond Acceptor Count": {"value": ["3"], "type": "str", "name": "\u6c22\u952e\u53d7\u4f53\u6570\u91cf"}, "Rotatable Bond Count": {"value": ["0"], "type": "str", "name": "\u53ef\u65cb\u8f6c\u952e\u6570"}, "Exact Mass": {"value": ["82.00303452 g/mol"], "type": "str", "name": "\u7cbe\u786e\u8d28\u91cf"}, "Monoisotopic Mass": {"value": ["82.00303452 g/mol"], "type": "str", "name": "\u5355\u4e00\u540c\u4f4d\u7d20\u8d28\u91cf"}, "Topological Polar Surface Area": {"value": ["0\u212b\u00b2"], "type": "str", "name": "\u62d3\u6251\u6781\u6027\u8868\u9762\u79ef"}, "Heavy Atom Count": {"value": ["5"], "type": "str", "name": "\u91cd\u539f\u5b50\u6570\u91cf"}, "Formal Charge": {"value": ["0"], "type": "str", "name": "\u6b63\u5f0f\u7535\u8377"}, "Complexity": {"value": ["42.9"], "type": "str", "name": "\u590d\u6742\u6027"}, "Isotope Atom Count": {"value": ["0"], "type": "str", "name": "\u540c\u4f4d\u7d20\u539f\u5b50\u6570"}, "Defined Atom Stereocenter Count": {"value": ["0"], "type": "str", "name": "\u5b9a\u4e49\u7684\u539f\u5b50\u7acb\u4f53\u4e2d\u5fc3\u6570"}, "Undefined Atom Stereocenter Count": {"value": ["0"], "type": "str", "name": "\u672a\u5b9a\u4e49\u7684\u539f\u5b50\u7acb\u4f53\u4e2d\u5fc3\u6570"}, "Defined Bond Stereocenter Count": {"value": ["0"], "type": "str", "name": "\u5b9a\u4e49\u7684\u952e\u7acb\u4f53\u4e2d\u5fc3\u6570"}, "Undefined Bond Stereocenter Count": {"value": ["0"], "type": "str", "name": "\u672a\u5b9a\u4e49\u7684\u952e\u7acb\u4f53\u4e2d\u5fc3\u6570"}, "Covalently_Bonded Unit Count": {"value": ["1"], "type": "str", "name": "\u5171\u4ef7\u952e\u5355\u5143\u6570"}, "Compound Is Canonicalized": {"value": ["Yes"], "type": "str", "name": "\u5316\u5408\u7269\u662f\u5426\u89c4\u8303\u5316"}, "ColorForm": {"value": ["Colorless gas"], "type": "list", "name": "\u989c\u8272\u5f62\u6001"}, "BoilingPoint": {"value": ["-51 \u00b0C"], "type": "list", "name": "\u6cb8\u70b9"}, "Solubility": {"value": ["Slightly soluble in", "ethanol", "; soluble in ether"], "type": "list", "name": "\u6eb6\u89e3\u6027"}, "Density": {"value": ["1.26 g/cu cm at -70 \u00b0C"], "type": "list", "name": "\u5bc6\u5ea6"}, "HazardsIdentification": {"value": ["9.1.1 GHS Classification", "Danger", "H220 (100%): Extremely flammable gas [", "Danger", "Flammable gases]", "H280 (100%): Contains gas under pressure; may explode if heated [", "Warning", "Gases under pressure]", "P203, P210, P222, P280, P377, P381, P403, and P410+P403", "(The corresponding statement to each P-code can be found at the", "GHS Classification", "page.)", "Aggregated GHS information provided by 41 companies from 2 notifications to the ECHA C&L Inventory. Each notification may be associated with multiple companies.", "Information may vary between notifications depending on impurities, additives, and other factors. The percentage value in parenthesis indicates the notified classification ratio from companies that provide hazard codes. Only hazard codes with percentage values above 10% are shown.", "9.1.2 Hazard Classes and Categories", "Flam. Gas 1 (100%)", "Press. Gas (Liq.) (100%)", "9.1.3 Hazards Summary", "May polymerize on exposure to heat or", "oxygen", "; In confined space spill, may displace air and act as simple asphyxiant; Evaporating liquid can cause frostbite; [MSDSonline] Inhalation causes general anesthesia in lethal-dose studies of rats; [RTECS]"], "type": "list", "name": "\u5371\u9669\u6027\u9274\u5b9a"}, "CAS": {"value": ["359-11-5"], "type": "str", "name": "CAS\u53f7"}}