{"IUPACName": {"value": ["7,7-dimethyloctanoic acid"], "type": "list", "name": "IUPAC\u540d\u79f0"}, "InChI": {"value": ["InChI=1S/C10H20O2/c1-10(2,3)8-6-4-5-7-9(11)12/h4-8H2,1-3H3,(H,11,12)"], "type": "list", "name": "InChI"}, "InChIKey": {"value": ["YPIFGDQKSSMYHQ-UHFFFAOYSA-N"], "type": "list", "name": "InChIKey"}, "CanonicalSMILES": {"value": ["CC(C)(C)CCCCCC(=O)O"], "type": "list", "name": "\u6807\u51c6SMILES"}, "MolecularFormula": {"value": ["C10H20O2", "C10H20O2"], "type": "list", "name": "\u5206\u5b50\u5f0f"}, "Molecular Weight": {"value": ["172.26 g/mol"], "type": "str", "name": "\u5206\u5b50\u91cf"}, "XLogP3": {"value": ["3.7"], "type": "str", "name": "XLogP3"}, "Hydrogen Bond Donor Count": {"value": ["1"], "type": "str", "name": "\u6c22\u952e\u4f9b\u4f53\u6570\u91cf"}, "Hydrogen Bond Acceptor Count": {"value": ["2"], "type": "str", "name": "\u6c22\u952e\u53d7\u4f53\u6570\u91cf"}, "Rotatable Bond Count": {"value": ["6"], "type": "str", "name": "\u53ef\u65cb\u8f6c\u952e\u6570"}, "Exact Mass": {"value": ["172.146329876 g/mol"], "type": "str", "name": "\u7cbe\u786e\u8d28\u91cf"}, "Monoisotopic Mass": {"value": ["172.146329876 g/mol"], "type": "str", "name": "\u5355\u4e00\u540c\u4f4d\u7d20\u8d28\u91cf"}, "Topological Polar Surface Area": {"value": ["37.3\u212b\u00b2"], "type": "str", "name": "\u62d3\u6251\u6781\u6027\u8868\u9762\u79ef"}, "Heavy Atom Count": {"value": ["12"], "type": "str", "name": "\u91cd\u539f\u5b50\u6570\u91cf"}, "Formal Charge": {"value": ["0"], "type": "str", "name": "\u6b63\u5f0f\u7535\u8377"}, "Complexity": {"value": ["133"], "type": "str", "name": "\u590d\u6742\u6027"}, "Isotope Atom Count": {"value": ["0"], "type": "str", "name": "\u540c\u4f4d\u7d20\u539f\u5b50\u6570"}, "Defined Atom Stereocenter Count": {"value": ["0"], "type": "str", "name": "\u5b9a\u4e49\u7684\u539f\u5b50\u7acb\u4f53\u4e2d\u5fc3\u6570"}, "Undefined Atom Stereocenter Count": {"value": ["0"], "type": "str", "name": "\u672a\u5b9a\u4e49\u7684\u539f\u5b50\u7acb\u4f53\u4e2d\u5fc3\u6570"}, "Defined Bond Stereocenter Count": {"value": ["0"], "type": "str", "name": "\u5b9a\u4e49\u7684\u952e\u7acb\u4f53\u4e2d\u5fc3\u6570"}, "Undefined Bond Stereocenter Count": {"value": ["0"], "type": "str", "name": "\u672a\u5b9a\u4e49\u7684\u952e\u7acb\u4f53\u4e2d\u5fc3\u6570"}, "Covalently_Bonded Unit Count": {"value": ["1"], "type": "str", "name": "\u5171\u4ef7\u952e\u5355\u5143\u6570"}, "Compound Is Canonicalized": {"value": ["Yes"], "type": "str", "name": "\u5316\u5408\u7269\u662f\u5426\u89c4\u8303\u5316"}, "BoilingPoint": {"value": ["482 to 494 \u00b0F at 760 mmHg (USCG, 1999)", "243-253 \u00b0C"], "type": "list", "name": "\u6cb8\u70b9"}, "MeltingPoint": {"value": ["less than 104 \u00b0F (USCG, 1999)", "-39 \u00b0C"], "type": "list", "name": "\u7194\u70b9"}, "FlashPoint": {"value": ["201 \u00b0F (USCG, 1999)", "94 \u00b0C c.c."], "type": "list", "name": "\u95ea\u70b9"}, "Solubility": {"value": ["Solubility in", "water", ", g/100ml at 25 \u00b0C: 0.025 (very poor)"], "type": "list", "name": "\u6eb6\u89e3\u6027"}, "Density": {"value": ["0.92 (USCG, 1999) - Less dense than", "water", "; will float", "Relative density (", "water", "= 1): 0.91"], "type": "list", "name": "\u5bc6\u5ea6"}, "VaporDensity": {"value": ["Relative vapor density  (air = 1): 5.9"], "type": "list", "name": "\u84b8\u6c14\u5bc6\u5ea6"}, "VaporPressure": {"value": ["0.007 [mmHg]", "Vapor pressure, Pa at 50 \u00b0C: 29 (calculated)"], "type": "list", "name": "\u84b8\u6c14\u538b"}, "LogP": {"value": ["3.6 (calculated)"], "type": "list", "name": "LogP"}, "HazardsIdentification": {"value": ["8.1.1 GHS Classification", "Danger", "H318 (75.81%): Causes serious eye damage [", "Danger", "Serious eye damage/eye irritation]", "H319 (11.32%): Causes serious eye irritation [", "Warning", "Serious eye damage/eye irritation]", "H412 (90.39%): Harmful to aquatic life with long lasting effects [Hazardous to the aquatic environment, long-term hazard]", "P264+P265, P273, P280, P305+P351+P338, P305+P354+P338, P317, P337+P317, and P501", "(The corresponding statement to each P-code can be found at the", "GHS Classification", "page.)", "Aggregated GHS information provided by 1146 companies from 14 notifications to the ECHA C&L Inventory. Each notification may be associated with multiple companies.", "Reported as not meeting GHS hazard criteria by 563 of 1146 companies. For more detailed information, please visit", "ECHA C&L website.", "Of the 12 notification(s) provided by 583 of 1146 companies with hazard statement code(s).", "Information may vary between notifications depending on impurities, additives, and other factors. The percentage value in parenthesis indicates the notified classification ratio from companies that provide hazard codes. Only hazard codes with percentage values above 10% are shown.", "8.1.2 Hazard Classes and Categories", "Eye Dam. 1 (75.81%)", "Eye Irrit. 2 (11.32%)", "Aquatic Chronic 3 (90.39%)", "Skin Irrit. 2 (100%)", "8.1.3 Health Hazards", "Irritating to eyes and respiratory tract in high concentrations. May cause hair disorder or damage. (USCG, 1999)", "8.1.4 Fire Hazards", "Special Hazards of Combustion Products: Flammable toxic gas may be released, if thermally decomposed. (USCG, 1999)", "Combustible. Above 94 \u00b0C explosive vapour/air mixtures may be formed.", "8.1.5 Hazards Summary", "Causes eye but not skin irritation in rabbits; Not a skin sensitizer in guinea pigs; Changes in blood chemistry and histopathological changes of the thyroid, liver, and kidney observed in 3-month oral study of rats; No adverse effects observed in 3-generation study of rats at doses up to 1,500 ppm dietary; [IUCLID] A moderate skin and eye irritant in rabbits; [EPA ChAMP: Hazard Characterization] Causes severe skin irritation and serious eye injury; Brief contact can causes second- and third-degree skin burns; Vapors or mist causes severe eye and throat irritation and may cause injury to the eye and lung; [CHRIS] May cause irritation; [ExxonMobil MSDS]"], "type": "list", "name": "\u5371\u9669\u6027\u9274\u5b9a"}, "Pictogram(s)": {"value": ["CorrosiveIrritant"], "type": "str", "name": "Pictogram(s)"}, "Signal": {"value": ["Danger"], "type": "str", "name": "Signal"}, "GHS Hazard Statements": {"value": ["H318 (75.81%): Causes serious eye damage [DangerSerious eye damage/eye irritation]H319 (11.32%): Causes serious eye irritation [WarningSerious eye damage/eye irritation]H412 (90.39%): Harmful to aquatic life with long lasting effects [Hazardous to the aquatic environment, long_term hazard]"], "type": "str", "name": "GHS Hazard Statements"}, "Precautionary Statement Codes": {"value": ["P264+P265, P273, P280, P305+P351+P338, P305+P354+P338, P317, P337+P317, and P501(The corresponding statement to each P_code can be found at theGHS Classificationpage.)"], "type": "str", "name": "Precautionary Statement Codes"}, "ECHA C&L Notifications Summary": {"value": ["Aggregated GHS information provided by 1146 companies from 14 notifications to the ECHA C&L Inventory. Each notification may be associated with multiple companies.Reported as not meeting GHS hazard criteria by 563 of 1146 companies. For more detailed information, please visitECHA C&L website.Of the 12 notification(s) provided by 583 of 1146 companies with hazard statement code(s).Information may vary between notifications depending on impurities, additives, and other factors. The percentage value in parenthesis indicates the notified classification ratio from companies that provide hazard codes. Only hazard codes with percentage values above 10% are shown."], "type": "str", "name": "ECHA C&L Notifications Summary"}, "CAS": {"value": ["52627-73-3"], "type": "str", "name": "CAS\u53f7"}}